LAMMPS data file via write_data, version 3 Mar 2020, timestep = 5000000

22 atoms
7 atom types
21 bonds
21 bond types
36 angles
36 angle types
58 dihedrals
58 dihedral types

# the box boundaries

-2.5000000000000000e+01 2.5000000000000000e+01 xlo xhi
-2.5000000000000000e+01 2.5000000000000000e+01 ylo yhi
-2.5000000000000000e+01 2.5000000000000000e+01 zlo zhi

Masses #Because of Charmm

1 1.0078
2 12.011
3 12.011
4 15.999
5 14.006
6 1.0078
7 1.0078

Atoms # atom_full num, molecule, atom, charge, xyz

1 1 1 0.1123 -0.9769130361887811 -2.40483330980006 0.9017833631830596 0 0 0
2 1 2 -0.3662 -0.006686377650364217 -1.9065658017442622 0.7329483768074152 0 0 0
3 1 1 0.1123 0.7933244550733202 -2.5325702424109 1.2411083534427045 0 0 0
4 1 1 0.1123 -0.0702165028869471 -0.9437540851423841 1.18717303143841 0 0 0
5 1 3 0.5972 0.3650609334030126 -1.7310150674690756 -0.6882857859914197 0 0 0
6 1 4 -0.5679 1.5232105735295194 -1.6209124353349127 -0.9193605651263312 0 0 0
7 2 5 -0.4157 -0.6247798709243737 -1.502487650522806 -1.49529068508086 0 0 0
8 2 6 0.2719 -1.4862954629856724 -1.4371242113804987 -1.0849565294913501 0 0 0
9 2 2 0.0337 -0.4729726016758405 -0.9991956605466756 -2.7829027064003746 0 0 0
10 2 7 0.0823 0.5043603071971152 -1.4503603483266492 -3.121267109363931 0 0 0
11 2 2 -0.1825 -1.5774190874857092 -1.546523444383477 -3.7098145371603155 0 0 0
12 2 1 0.0603 -1.4337777273183718 -1.2900405246782332 -4.741064145741034 0 0 0
13 2 1 0.0603 -1.7050820385150158 -2.638197449435861 -3.7644242885693058 0 0 0
14 2 1 0.0603 -2.539649783369777 -1.1435561399880558 -3.3687924537075262 0 0 0
15 2 3 0.5973 -0.4602259274565072 0.5813893277163824 -2.8611316343468314 0 0 0
16 2 4 -0.5679 -1.4093556352122203 1.2960818254455315 -3.270083461039002 0 0 0
17 3 5 -0.4157 0.7089326384970632 1.1874144483648292 -2.5588186311990464 0 0 0
18 3 6 0.2719 1.4775168424109995 0.6154458529426482 -2.297706186971153 0 0 0
19 3 2 -0.149 0.8963190691034832 2.578969735662383 -2.4575939896448777 0 0 0
20 3 7 0.0976 1.153902901805114 2.9802937306785644 -3.4390287211200925 0 0 0
21 3 7 0.0976 -0.06639268114906494 3.0483953556526795 -2.216208397995845 0 0 0
22 3 7 0.0976 1.683094471676261 2.8445257050642416 -1.7256997426338918 0 0 0

Bonds

1 7 7 8
2 8 7 9
3 1 1 2
4 5 5 6
5 6 5 7
6 2 2 3
7 3 2 4
8 4 2 5
9 9 9 10
10 10 9 11
11 11 9 15
12 15 15 16
13 16 15 17
14 12 11 12
15 13 11 13
16 14 11 14
17 19 19 20
18 20 19 21
19 21 19 22
20 17 17 18
21 18 17 19

Angles

1 9 5 7 8
2 10 5 7 9
3 15 8 7 9
4 4 2 5 6
5 5 2 5 7
6 11 6 5 7
7 1 1 2 3
8 2 1 2 4
9 3 1 2 5
10 6 3 2 4
11 7 3 2 5
12 8 4 2 5
13 12 7 9 10
14 13 7 9 11
15 14 7 9 15
16 21 10 9 11
17 22 10 9 15
18 23 11 9 15
19 19 9 15 16
20 20 9 15 17
21 29 16 15 17
22 16 9 11 12
23 17 9 11 13
24 18 9 11 14
25 24 12 11 13
26 25 12 11 14
27 26 13 11 14
28 30 17 19 20
29 31 17 19 21
30 32 17 19 22
31 34 20 19 21
32 35 20 19 22
33 36 21 19 22
34 27 15 17 18
35 28 15 17 19
36 33 18 17 19

Dihedrals

1 6 2 7 5 6
2 13 5 7 9 10
3 14 5 7 9 11
4 15 5 7 9 11
5 16 5 7 9 11
6 17 5 7 9 15
7 18 5 7 9 15
8 30 8 7 9 10
9 31 8 7 9 11
10 32 8 7 9 15
11 4 2 5 7 8
12 5 2 5 7 9
13 20 6 5 7 8
14 21 6 5 7 8
15 22 6 5 7 9
16 1 1 2 5 6
17 2 1 2 5 6
18 3 1 2 5 7
19 7 3 2 5 6
20 8 3 2 5 6
21 9 3 2 5 7
22 10 4 2 5 6
23 11 4 2 5 6
24 12 4 2 5 7
25 19 5 9 7 8
26 23 7 9 11 12
27 24 7 9 11 13
28 25 7 9 11 14
29 26 7 9 15 16
30 27 7 9 15 17
31 28 7 9 15 17
32 29 7 9 15 17
33 36 10 9 11 12
34 37 10 9 11 13
35 38 10 9 11 14
36 39 10 9 15 16
37 40 10 9 15 16
38 41 10 9 15 17
39 42 11 9 15 16
40 43 11 9 15 17
41 44 11 9 15 17
42 45 11 9 15 17
43 46 15 9 11 12
44 47 15 9 11 13
45 48 15 9 11 14
46 33 9 15 17 18
47 34 9 15 17 19
48 53 16 15 17 18
49 54 16 15 17 18
50 55 16 15 17 19
51 52 15 19 17 18
52 35 9 17 15 16
53 49 15 17 19 20
54 50 15 17 19 21
55 51 15 17 19 22
56 56 18 17 19 20
57 57 18 17 19 21
58 58 18 17 19 22
